 VARIABLES="X","Y","T"
 Zone T='Coordinate.'
 I=         488 J=         894 ,F=FEPOINT ET=Triangle
   1.00000000000000       0.000000000000000E+000   50.0000000000000     
   1.00000000000000        1.00000000000000        49.9980071908022     
   1.00000000000000       5.000000000000000E-002   50.0000000000000     
   1.00000000000000       0.100000000000000        50.0000000000000     
   1.00000000000000       0.150000000000000        50.0000000000000     
   1.00000000000000       0.200000000000000        50.0000000000000     
   1.00000000000000       0.250000000000000        50.0000000000000     
   1.00000000000000       0.300000000000000        50.0000000000000     
   1.00000000000000       0.350000000000000        50.0000000000000     
   1.00000000000000       0.400000000000000        50.0000000000000     
   1.00000000000000       0.450000000000000        50.0000000000000     
   1.00000000000000       0.500000000000000        50.0000000000000     
   1.00000000000000       0.550000000000000        50.0000000000000     
   1.00000000000000       0.600000000000000        50.0000000000000     
   1.00000000000000       0.650000000000000        50.0000000000000     
   1.00000000000000       0.700000000000000        50.0000000000000     
   1.00000000000000       0.750000000000000        50.0000000000000     
   1.00000000000000       0.800000000000000        50.0000000000000     
   1.00000000000000       0.850000000000000        50.0000000000000     
   1.00000000000000       0.900000000000000        50.0000000000000     
   1.00000000000000       0.950000000000000        50.0000000000000     
  0.000000000000000E+000  0.000000000000000E+000   100.000000000000     
  5.000000000000000E-002  0.000000000000000E+000   100.000000000000     
  0.100000000000000       0.000000000000000E+000   100.000000000000     
  0.150000000000000       0.000000000000000E+000   100.000000000000     
  0.200000000000000       0.000000000000000E+000   100.000000000000     
  0.250000000000000       0.000000000000000E+000   100.000000000000     
  0.300000000000000       0.000000000000000E+000   100.000000000000     
  0.350000000000000       0.000000000000000E+000   100.000000000000     
  0.400000000000000       0.000000000000000E+000   100.000000000000     
  0.450000000000000       0.000000000000000E+000   100.000000000000     
  0.500000000000000       0.000000000000000E+000   100.000000000000     
  0.550000000000000       0.000000000000000E+000   100.000000000000     
  0.600000000000000       0.000000000000000E+000   100.000000000000     
  0.650000000000000       0.000000000000000E+000   100.000000000000     
  0.700000000000000       0.000000000000000E+000   100.000000000000     
  0.750000000000000       0.000000000000000E+000   100.000000000000     
  0.800000000000000       0.000000000000000E+000   100.000000000000     
  0.850000000000000       0.000000000000000E+000   100.000000000000     
  0.900000000000000       0.000000000000000E+000   100.000000000000     
  0.950000000000000       0.000000000000000E+000   100.000000000000     
  0.000000000000000E+000   1.00000000000000        30.8038277756103     
  0.000000000000000E+000  0.950000000000000        29.5788042431733     
  0.000000000000000E+000  0.900000000000000        32.8622964670685     
  0.000000000000000E+000  0.850000000000000        31.1896375753740     
  0.000000000000000E+000  0.800000000000000        31.2429958757380     
  0.000000000000000E+000  0.750000000000000        31.3030757917397     
  0.000000000000000E+000  0.700000000000000        31.3266894102391     
  0.000000000000000E+000  0.650000000000000        31.2996402489943     
  0.000000000000000E+000  0.600000000000000        31.3868199900893     
  0.000000000000000E+000  0.550000000000000        28.9371953507650     
  0.000000000000000E+000  0.500000000000000        28.9532557546240     
  0.000000000000000E+000  0.450000000000000        31.3965745263221     
  0.000000000000000E+000  0.400000000000000        31.3121504756443     
  0.000000000000000E+000  0.350000000000000        31.3530026564007     
  0.000000000000000E+000  0.300000000000000        31.3444022292348     
  0.000000000000000E+000  0.250000000000000        31.3101682381211     
  0.000000000000000E+000  0.200000000000000        31.2449172929842     
  0.000000000000000E+000  0.150000000000000        31.2032520324889     
  0.000000000000000E+000  0.100000000000000        32.8437203148499     
  0.000000000000000E+000  5.000000000000000E-002   26.4226232509360     
  0.950000000000000        1.00000000000000        6.57091943867181     
  0.900000000000000        1.00000000000000        1.14100958394037     
  0.850000000000000        1.00000000000000       0.644672366659735     
  0.800000000000000        1.00000000000000       0.650825150431748     
  0.750000000000000        1.00000000000000       0.673976122638918     
  0.700000000000000        1.00000000000000       0.646024912857681     
  0.650000000000000        1.00000000000000       0.570827983863841     
  0.600000000000000        1.00000000000000       0.407231606395940     
  0.550000000000000        1.00000000000000       0.123261657080851     
  0.500000000000000        1.00000000000000       0.295029341463792     
  0.450000000000000        1.00000000000000        1.32659731936253     
  0.400000000000000        1.00000000000000       0.901219746694420     
  0.350000000000000        1.00000000000000       0.774687549691329     
  0.300000000000000        1.00000000000000       0.769215406414715     
  0.250000000000000        1.00000000000000       0.748834067559046     
  0.200000000000000        1.00000000000000       0.689243373256444     
  0.150000000000000        1.00000000000000       0.680069947679620     
  0.100000000000000        1.00000000000000        1.29734473053615     
  5.000000000000000E-002   1.00000000000000        7.16539194667677     
  0.965001270128000       3.545778635770000E-002   1.37545282197372     
  0.524849096474000       3.371036819970000E-002   1.38055773281385     
  0.479312027219000       0.510546975896000        19.4415372439378     
  0.964548318679000       0.965005244986000        5.63577421204870     
  3.545299569480000E-002  0.965005162995000        7.53325560054640     
  3.545531960320000E-002  3.499127586120000E-002   1.05020939788418     
  0.958461124619000       7.893014433060000E-002   5.65422401167358     
  7.891379239890001E-002  0.958470721577000        11.8247439893941     
  4.925325930920000E-002  8.079012469330001E-002   6.03801984034371     
  7.891781776030000E-002  4.150914433790000E-002   1.47435819259821     
  0.921091152638000       0.958474151989000        12.6432876490995     
  0.950754201138000       0.919201322738000        3.53239244007666     
  0.919189765169000       4.926137197060000E-002   1.28585650730301     
  4.924182001780000E-002  0.919203979902000        4.63595067482266     
  0.956105007528000       0.128757617273000        5.35250191857750     
  0.128713011028000       0.956119830177000        12.9353915583090     
  4.349787616220000E-002  0.131913416075000        6.32962140618113     
  0.128734997293000       4.385783387820000E-002   1.71853049198928     
  0.956495142095000       0.868056474373000        4.86543553345779     
  0.871306769156000       0.956144629758000        12.8872455351812     
  0.868039180081000       4.351541613610000E-002   1.50275748848774     
  4.348620295230000E-002  0.868067880843000        6.38577876509780     
  0.956083777020000       0.818870457810000        5.46374565526980     
  0.821051712665000       0.954932892433000        13.1490088303162     
  0.818836338045000       4.392737344770000E-002   1.75192409107981     
  4.388728836300000E-002  0.818889783380000        7.18943160359356     
  0.954823399990000       0.179122927079000        5.77194009210406     
  0.179013177725000       0.954826378029000        13.1571981925667     
  0.179080027769000       4.512408614930000E-002   1.93078426364711     
  4.390823804220000E-002  0.181067067565000        7.19316918427221     
  0.954601847266000       0.229635201346000        5.86971652731346     
  0.229379811626000       0.954543738051000        13.2176774993667     
  0.229565521402000       4.533847736020000E-002   1.98239179322613     
  4.435008156540000E-002  0.230723635489000        7.23071663257677     
  0.955687570371000       0.769156689039000        5.52125953290302     
  0.770785264203000       0.954878217395000        13.1806732438815     
  0.769091481784000       4.433567061180000E-002   1.80198135458807     
  4.430130396760000E-002  0.769177874283000        7.22613146192963     
  0.279984468220000       4.521765217830000E-002   1.96102817135977     
  4.475304345240000E-002  0.280676197532000        7.37600542039688     
  0.954734488485000       0.280086417174000        5.83107422909843     
  0.279525292711000       0.954520663475000        13.1336949690650     
  0.718979748779000       4.462083253980000E-002   1.85871593450404     
  4.463187525250000E-002  0.719104764597000        7.36248580387359     
  0.955430658725000       0.719086758491000        5.62753820523401     
  0.720797242285000       0.955340727443000        13.0366182088858     
  0.330461752322000       4.495839499730000E-002   1.91828976743957     
  4.493240716820000E-002  0.330896709594000        7.45323902632617     
  0.955026848954000       0.330599316198000        5.75767719297485     
  0.329471760812000       0.954504689496000        13.1039865624570     
  0.668488396220000       4.453177376080000E-002   1.85333697225875     
  4.463374669090000E-002  0.668658481265000        7.40997042535007     
  0.955557294545000       0.668637946564000        5.62805219677377     
  0.670995036514000       0.956101967361000        12.8942999725589     
  0.381110772941000       4.459671163710000E-002   1.86539554590141     
  4.479122143820000E-002  0.381442416243000        7.46253081435148     
  0.955434894956000       0.381280483232000        5.67284107774852     
  0.379324193096000       0.954313926864000        13.0636695059604     
  0.617621123247000       4.382219273680000E-002   1.73906944219490     
  4.403157778720000E-002  0.617837724400000        7.28532980293207     
  0.956298447045000       0.617802589994000        5.45760782951799     
  0.621241352349000       0.956841959180000        12.7929439801856     
  0.567222346544000       4.166290732910000E-002   1.39273104206505     
  4.194455598680000E-002  0.567463886164000        6.35474232583813     
  0.958467620010000       0.567414567890000        4.55821733601864     
  0.572004741743000       0.958099489641000        11.7552992067144     
  0.432027848330000       4.380934535290000E-002   1.73609357843764     
  4.409462115880000E-002  0.432324683642000        7.30429255769989     
  0.956266569749000       0.432215948481000        5.47272878819553     
  0.429883164748000       0.953584048626000        14.4337390546748     
  4.196182284470000E-002  0.482724463355000        6.34970424938766     
  0.482452568120000       4.165018440330000E-002   1.39014547163777     
  0.958454685462000       0.482638398383000        4.56218236830781     
  0.484712284100000       0.949636035283000        8.05771313751239     
  0.914548541419000       0.105283694258000        11.1774170931494     
  3.394872631000000E-002  0.525076763933000        8.26473451337444     
  0.966421390106000       0.525020903523000        5.51839934301009     
  0.528291091118000       0.964024690014000        20.0055511281860     
  0.504844172582000       0.826341936928000        14.6485375312663     
  0.881005562305000       8.385491607270000E-002   16.6992475331014     
  0.838023648708000       8.748002858180000E-002   11.5313173679476     
  0.788921782163000       8.805497343179999E-002   12.5905750253636     
  0.738952167479000       8.891543375869999E-002   12.6806705929385     
  0.688306132075000       8.915109100570000E-002   12.9015201489343     
  0.636706774187000       8.846091881960000E-002   13.1074921952455     
  0.583244671235000       8.625914775180001E-002   14.4279820668185     
  0.524784526475000       7.974082468160000E-002   11.2187919579297     
  0.910047198736000       0.156875517951000        13.1497377686396     
  0.909332220807000       0.208615257445000        11.6489977262570     
  0.909344116470000       0.259592695290000        11.6803476206866     
  0.909970753568000       0.310537149992000        11.6676869544459     
  0.910598993092000       0.361591327922000        11.6995685293724     
  0.911642587988000       0.413299134322000        11.8119571853420     
  0.913972916894000       0.466740634335000        13.0226888755803     
  0.105218285520000       0.914583313929000        9.78281403948193     
  8.378853527089999E-002  0.881051353630000        15.0194756146054     
  8.738096860580000E-002  0.838112180085000        10.1798201827529     
  8.793192079070000E-002  0.789077000958000        11.0195129869530     
  8.883344206830000E-002  0.739178983010000        11.1386272029528     
  8.922998467120000E-002  0.688599171036000        11.3508755964059     
  8.879452545909999E-002  0.637064177208000        11.5377835501705     
  8.682448578900000E-002  0.583654426302000        12.7957634313040     
  8.037340968720000E-002  0.525188296548000        8.81051979484565     
  0.156712389152000       0.910087372898000        11.8418212825126     
  0.208252120454000       0.909306138864000        10.4882280168509     
  0.258819386004000       0.909087352910000        10.4939951771906     
  0.308945420783000       0.909217714241000        10.4257431181385     
  0.358442156321000       0.908981323033000        10.3552265076036     
  0.407236083496000       0.908520575264000        10.1941935028584     
  0.454733974281000       0.907397416534000        9.15546386261110     
  0.105246254856000       8.538311737150001E-002   12.2977754216237     
  8.381616500800000E-002  0.118915464835000        14.4963961973837     
  8.742379522000000E-002  0.161824272571000        10.2352116254506     
  8.801612121810000E-002  0.210794303720000        11.0074658318849     
  8.902136877180000E-002  0.260540939770000        11.1191479926898     
  8.964583659229999E-002  0.310783317466000        11.2939783543077     
  8.971637433220001E-002  0.361578020711000        11.4376069603553     
  8.904506326099999E-002  0.413243015905000        11.5861012825374     
  8.691360210200000E-002  0.466716103038000        12.8897192574611     
  0.156794218731000       8.983828129710000E-002   14.5003701122083     
  0.208476966567000       9.051844501600000E-002   12.8283754359365     
  0.259388676983000       9.051480432610000E-002   12.8712632813549     
  0.310258889743000       8.995313148360000E-002   12.8837499625656     
  0.361238543014000       8.943096456890000E-002   12.9481711681455     
  0.412894312236000       8.850137568440000E-002   13.1106534264095     
  0.466333470712000       8.625453212509999E-002   14.5004807101742     
  0.894772004584000       0.914589152000000        9.77593958396653     
  0.916176500446000       0.881040102781000        15.3547928881680     
  0.912542643442000       0.838079163086000        10.4349603979939     
  0.911970443315000       0.789024033142000        11.3200084044380     
  0.911155406488000       0.739128284755000        11.4264016447452     
  0.911007140803000       0.688567245105000        11.6149730970646     
  0.911792223108000       0.637041275315000        11.7692026684635     
  0.914050791142000       0.583625208600000        13.0038215496113     
  0.920561226436000       0.525169671385000        9.23980904593146     
  0.843284828740000       0.910157787809000        11.8405607347004     
  0.791812311529000       0.909625290798000        10.4580006309425     
  0.741434550063000       0.910064675314000        10.3918693622106     
  0.691631928421000       0.911535473249000        10.1666703272968     
  0.642265802791000       0.913263364610000        9.95617344505865     
  0.592014457994000       0.914471945964000        11.1901877647990     
  0.537953014702000       0.917486479763000        5.98273903847840     
  0.496529572203000       0.901759979860000        14.9558230509373     
  0.864069118650000       0.131936560507000        6.49088840293011     
  0.131752643064000       0.864167168167000        6.74879278679101     
  0.131830404680000       0.135748683233000        6.52507369702505     
  0.868138354617000       0.864158968581000        6.74808081369054     
  0.812972133539000       0.864940309945000        10.4765821666384     
  0.762095566300000       0.863914378914000        12.2107160590266     
  0.711620893187000       0.866311096066000        10.5490303426503     
  0.662793930830000       0.868764898678000        10.4871053365783     
  0.615353035174000       0.871902406331000        8.57532450913644     
  0.864718893777000       0.187252351855000        10.3926780595559     
  0.863369571845000       0.238527136427000        12.1792788840177     
  0.864952028532000       0.290004239397000        10.6882719496104     
  0.865681569832000       0.341019591361000        10.7333960531184     
  0.866599938838000       0.392365632680000        10.8550213681871     
  0.868263228439000       0.444647038489000        10.9527607463124     
  0.186834748294000       0.864822105104000        10.4541457530595     
  0.237707706661000       0.863289111668000        12.2060396902427     
  0.288450092578000       0.864318431371000        10.6522451566188     
  0.338102456135000       0.864023426654000        10.6151877519575     
  0.386932615260000       0.863390868287000        10.4947707713513     
  0.434435067374000       0.862979750477000        10.5224238149144     
  0.187036687050000       0.134997506869000        10.1364970591173     
  0.238197674969000       0.136308215858000        11.9045148563696     
  0.289554387816000       0.134810682415000        10.4357023903993     
  0.340441180059000       0.134266228828000        10.4957199356834     
  0.391675350359000       0.133568338499000        10.6443263599671     
  0.443911379160000       0.132093832376000        10.7600404545837     
  0.567548083498000       0.870257806948000        10.4274858068178     
  0.869565998319000       0.810483399422000        9.42166145065821     
  0.867460976488000       0.760480595038000        10.5892584540464     
  0.866536897622000       0.710031140057000        10.6642035137248     
  0.866966912146000       0.658836013609000        10.8207249600371     
  0.868604198196000       0.606492834588000        10.8992725022150     
  0.871186767864000       0.552593476552000        12.1741741065175     
  0.130192025997000       0.810563424091000        9.39747042779671     
  0.132270423252000       0.760605418218000        10.5607136700362     
  0.133469205500000       0.710138816582000        10.6630414839075     
  0.133662683627000       0.658874916366000        10.8964763204289     
  0.132719817027000       0.606464687249000        11.0676094567445     
  0.130512875730000       0.552476149028000        12.4350604307021     
  0.810352382325000       0.130457682755000        9.23927545539776     
  0.760259835036000       0.132586148114000        10.3949613116655     
  0.709686494912000       0.133642849367000        10.4923957474497     
  0.658371850339000       0.133415890341000        10.6662807535593     
  0.605935253901000       0.131938230439000        10.7572886862831     
  0.551961128668000       0.129392525438000        11.9753501449626     
  0.130314656636000       0.189302609795000        9.41851875039155     
  0.132511350484000       0.239153472274000        10.5630627731821     
  0.133942827931000       0.289390809558000        10.6469585093167     
  0.134555135899000       0.340164817121000        10.8208031100412     
  0.134323158109000       0.391629710591000        10.9933749512539     
  0.133102747665000       0.444128124766000        11.1177828982211     
  0.168490330524000       0.172085918734000        14.6726172094139     
  0.168303560946000       0.827743325287000        14.6116588329888     
  0.827523599071000       0.168735695888000        14.7355704998677     
  0.831325651846000       0.827708279102000        14.6669774038672     
  0.479061112048000       0.863562189940000        7.08465376774900     
  0.523968722075000       0.865609718316000        8.94794424208888     
  0.216333884351000       0.185420625730000        6.70844380239890     
  0.783277735137000       0.814317923395000        6.77875164631386     
  0.215912633467000       0.814264084107000        6.63600179500323     
  0.813949393020000       0.216807346394000        6.79571220479038     
  0.730584248084000       0.821260147119000        9.79399365010576     
  0.269162437110000       0.179032505687000        9.75169656815744     
  0.820392910508000       0.269829253474000        9.85776511229684     
  0.268318993295000       0.820271977525000        9.62215517758728     
  0.319272337982000       0.178769089172000        10.8033296772320     
  0.820915703451000       0.320134424480000        10.8633310725085     
  0.317663486445000       0.819803423157000        10.5947714410745     
  0.681286172332000       0.823121019421000        10.6826822708645     
  0.369768942290000       0.178551573931000        10.8085338960054     
  0.821525492577000       0.370832310971000        10.8182755527888     
  0.366871686620000       0.818772495354000        10.5032060628732     
  0.633953891042000       0.827372827628000        8.55546315378984     
  0.420867974524000       0.177799475623000        11.0472747921254     
  0.822606544849000       0.422059008613000        11.0087266005422     
  0.415869457131000       0.817904422346000        10.5464511440440     
  0.592354409366000       0.834452637911000        13.5227032907950     
  0.130623880041000       0.498170842118000        12.5286040711095     
  0.824787692784000       0.783247811450000        10.1720402911927     
  0.174556675425000       0.783430291967000        10.0507064665162     
  0.782986671750000       0.175205159258000        10.2089415797010     
  0.174879648142000       0.216339487033000        10.0632422843884     
  0.497761721955000       0.129461610035000        12.0651408501572     
  0.871039693608000       0.498462771223000        12.3069591690821     
  0.822364208094000       0.732823702059000        10.7544690373388     
  0.821960377179000       0.681846624927000        10.8548595982408     
  0.823440036728000       0.630305274090000        10.8909096866624     
  0.825172724664000       0.578266805846000        10.9667857838231     
  0.176980094162000       0.733154396624000        10.5918476262809     
  0.178148715259000       0.682137985523000        10.7862491070128     
  0.178070049450000       0.630416480791000        11.0347127159953     
  0.177425430272000       0.578153261512000        11.2733511838324     
  0.732420685318000       0.177720094512000        10.7932214908721     
  0.681276308708000       0.178470326168000        10.9278133572050     
  0.629599545293000       0.177369810669000        11.0200503556978     
  0.577430201563000       0.175773995168000        11.0912410721676     
  0.177536476462000       0.266548689891000        10.6260271056136     
  0.179098353142000       0.317391362141000        10.8106905774273     
  0.179488966668000       0.368754510139000        10.9990602807487     
  0.179128168281000       0.420513115734000        11.1882701916931     
  0.464016383904000       0.818655069251000        9.43536810515027     
  0.549767044571000       0.816046324076000        6.89923947118283     
  0.472748362521000       0.176284504659000        11.1923952944705     
  0.824354976125000       0.473904567248000        11.0981133355155     
  0.525045221568000       0.175181918440000        11.2179252019333     
  0.177122689737000       0.525563167531000        11.3287181017675     
  0.177958265101000       0.472890456357000        11.4274883806887     
  0.825657512618000       0.526047436935000        11.1000890904707     
  0.218919556832000       0.758146554162000        10.2631441503993     
  0.253533699846000       0.780118715941000        14.5131409819979     
  0.296578451303000       0.776478478256000        9.63791877248037     
  0.345433533766000       0.775200264237000        10.4548536102506     
  0.395115561832000       0.773356384169000        10.6976748690308     
  0.222256044673000       0.706757592544000        12.0041585933118     
  0.222440333390000       0.654902861122000        10.7541417202595     
  0.222937797913000       0.603511116743000        10.9946954045743     
  0.757210458819000       0.220307413405000        10.4672465134236     
  0.779460927752000       0.255248179234000        14.7747148300744     
  0.776405559903000       0.299085035142000        9.94083930165413     
  0.776747869466000       0.348936416938000        10.7395846168089     
  0.777108592511000       0.399486414120000        10.8592678002764     
  0.705134405551000       0.223906782617000        12.3451349677147     
  0.653197663728000       0.222780673901000        10.8885445541083     
  0.602114205468000       0.220935943366000        10.9108036840081     
  0.779500607538000       0.757652510061000        10.5294896371810     
  0.744407469323000       0.780079249712000        14.8706268464699     
  0.700020289940000       0.777569203762000        10.0623160468391     
  0.649219141230000       0.780025803058000        12.0033159324311     
  0.599362338761000       0.790147983887000        11.1177985376888     
  0.776279434511000       0.705778964804000        12.3081705486134     
  0.778234321714000       0.654000013999000        10.7665883687641     
  0.780529613659000       0.603092118405000        10.7694313080040     
  0.219605071268000       0.241595082017000        10.3292150942532     
  0.254352241930000       0.219431216148000        14.6150283634038     
  0.297900250481000       0.222662586354000        9.80426061923181     
  0.347436527208000       0.222987811364000        10.6542946161441     
  0.397688124165000       0.223250612490000        10.8330859120861     
  0.223411541245000       0.293084946676000        12.1319608918554     
  0.224138931769000       0.345047505310000        10.8943200366005     
  0.224878248626000       0.396477421326000        11.1121586466834     
  0.446594600879000       0.772852078082000        12.0778612744035     
  0.268369367203000       0.732847442987000        6.49970492898834     
  0.731006952054000       0.271227783857000        6.95303990907802     
  0.727977527756000       0.731713173728000        7.04437386864201     
  0.269813423675000       0.266918703299000        6.67853925565618     
  0.448577569956000       0.222311289096000        10.9755060543127     
  0.499832453765000       0.220854720772000        10.9102584247511     
  0.550978099746000       0.219995274934000        10.9106868657432     
  0.778317232405000       0.450428893824000        10.9593544627343     
  0.224516849970000       0.448128190695000        11.2243710949617     
  0.223142215936000       0.551917800050000        11.1856800619088     
  0.223621499165000       0.500049101675000        11.3232898462273     
  0.675211815918000       0.268651124314000        10.7582277785344     
  0.625467670485000       0.266412681280000        10.1223652824247     
  0.265020470371000       0.679196435208000        9.49637061910294     
  0.267309040563000       0.628939917902000        10.8166257232121     
  0.732198902497000       0.675962921742000        10.9059160124362     
  0.735720028847000       0.626454606358000        9.89512773763434     
  0.267289648936000       0.321188372377000        9.76670207746088     
  0.270251671845000       0.372058227713000        11.2153266413058     
  0.781283046315000       0.552204717116000        10.6877980726307     
  0.670905277980000       0.734088912637000        11.3116092806478     
  0.323891419456000       0.265687354496000        9.63885172329431     
  0.373941475380000       0.268330625265000        10.9223726613326     
  0.321684056266000       0.733688396427000        9.35597107466581     
  0.371023490517000       0.729844842014000        10.6462792905297     
  0.733064595768000       0.325822476455000        9.93833852964716     
  0.731885469241000       0.376414287970000        11.0355317820376     
  0.613570879057000       0.734432180415000        8.28367039995079     
  0.301896788119000       0.697868674272000        13.0567338909649     
  0.693569760015000       0.307167599165000        15.0969255188432     
  0.304613347845000       0.302418740167000        13.4470635817861     
  0.692347981652000       0.694061610230000        15.3236956852621     
  0.780040101805000       0.501423095355000        10.9296178663701     
  0.314366201660000       0.346828521306000        10.2839428184949     
  0.310034165131000       0.654638919562000        9.77170045013213     
  0.643585118222000       0.318857160609000        7.43599407060085     
  0.683706809789000       0.643881485502000        6.86599761663799     
  0.503674081111000       0.776402117394000        8.96332402595933     
  0.559492478646000       0.759742946983000        12.6504683538494     